HEADER
"PSFversion" "1.00"
"simulator" "spectre"
"version" "15.1.0.803.isr18"
"date" "5:31:29 PM, Mon Nov 25, 2019"
"design" "// Generated for: spectre"
"analysis type" "info"
"analysis name" "designParamVals"
"analysis description" "Circuit Information"
"xVecSorted" "unknown"
"tolerance.relative" 0.000100000
TYPE
"top-level" STRUCT(
"temp" FLOAT DOUBLE
"tnom" FLOAT DOUBLE
"time" FLOAT DOUBLE
"supply" FLOAT DOUBLE
"Vneg" FLOAT DOUBLE
"Vplus" FLOAT DOUBLE
"__bsim4_diomod" FLOAT DOUBLE
"__nn_accuracy" FLOAT DOUBLE
"xsf__mos" FLOAT DOUBLE
"xsf__bip" FLOAT DOUBLE
"xsf__dio" FLOAT DOUBLE
"xsf__res" FLOAT DOUBLE
"xsf__cap" FLOAT DOUBLE
"xsf__" FLOAT DOUBLE
"qpva_dis" FLOAT DOUBLE
"qpva_dbf" FLOAT DOUBLE
"qpva_dvaf" FLOAT DOUBLE
"qpva_dikf" FLOAT DOUBLE
"qpva_dise" FLOAT DOUBLE
"qpva_drb" FLOAT DOUBLE
"qpva_drbm" FLOAT DOUBLE
"qpva_dre" FLOAT DOUBLE
"qpva_drc" FLOAT DOUBLE
"qpva_dcje" FLOAT DOUBLE
"qpva_dcjc" FLOAT DOUBLE
"qpva_dtf" FLOAT DOUBLE
"qpva_abf" FLOAT DOUBLE
"qpva_ais" FLOAT DOUBLE
"qpva_aise" FLOAT DOUBLE
"qpva_arb" FLOAT DOUBLE
"qpvb_dis" FLOAT DOUBLE
"qpvb_dbf" FLOAT DOUBLE
"qpvb_dvaf" FLOAT DOUBLE
"qpvb_dikf" FLOAT DOUBLE
"qpvb_dise" FLOAT DOUBLE
"qpvb_drb" FLOAT DOUBLE
"qpvb_drbm" FLOAT DOUBLE
"qpvb_dre" FLOAT DOUBLE
"qpvb_drc" FLOAT DOUBLE
"qpvb_dcje" FLOAT DOUBLE
"qpvb_dcjc" FLOAT DOUBLE
"qpvb_dtf" FLOAT DOUBLE
"qpvb_abf" FLOAT DOUBLE
"qpvb_ais" FLOAT DOUBLE
"qpvb_aise" FLOAT DOUBLE
"qpvb_arb" FLOAT DOUBLE
"qpvc_dis" FLOAT DOUBLE
"qpvc_dbf" FLOAT DOUBLE
"qpvc_dvaf" FLOAT DOUBLE
"qpvc_dikf" FLOAT DOUBLE
"qpvc_dise" FLOAT DOUBLE
"qpvc_drb" FLOAT DOUBLE
"qpvc_drbm" FLOAT DOUBLE
"qpvc_dre" FLOAT DOUBLE
"qpvc_drc" FLOAT DOUBLE
"qpvc_dcje" FLOAT DOUBLE
"qpvc_dcjc" FLOAT DOUBLE
"qpvc_dtf" FLOAT DOUBLE
"qpvc_abf" FLOAT DOUBLE
"qpvc_ais" FLOAT DOUBLE
"qpvc_aise" FLOAT DOUBLE
"qpvc_arb" FLOAT DOUBLE
"qpva5_dis" FLOAT DOUBLE
"qpva5_dbf" FLOAT DOUBLE
"qpva5_dvaf" FLOAT DOUBLE
"qpva5_dikf" FLOAT DOUBLE
"qpva5_dise" FLOAT DOUBLE
"qpva5_drb" FLOAT DOUBLE
"qpva5_drbm" FLOAT DOUBLE
"qpva5_dre" FLOAT DOUBLE
"qpva5_drc" FLOAT DOUBLE
"qpva5_dcje" FLOAT DOUBLE
"qpva5_dcjc" FLOAT DOUBLE
"qpva5_dtf" FLOAT DOUBLE
"qpva5_abf" FLOAT DOUBLE
"qpva5_ais" FLOAT DOUBLE
"qpva5_aise" FLOAT DOUBLE
"qpva5_arb" FLOAT DOUBLE
"qpvb5_dis" FLOAT DOUBLE
"qpvb5_dbf" FLOAT DOUBLE
"qpvb5_dvaf" FLOAT DOUBLE
"qpvb5_dikf" FLOAT DOUBLE
"qpvb5_dise" FLOAT DOUBLE
"qpvb5_drb" FLOAT DOUBLE
"qpvb5_drbm" FLOAT DOUBLE
"qpvb5_dre" FLOAT DOUBLE
"qpvb5_drc" FLOAT DOUBLE
"qpvb5_dcje" FLOAT DOUBLE
"qpvb5_dcjc" FLOAT DOUBLE
"qpvb5_dtf" FLOAT DOUBLE
"qpvb5_abf" FLOAT DOUBLE
"qpvb5_ais" FLOAT DOUBLE
"qpvb5_aise" FLOAT DOUBLE
"qpvb5_arb" FLOAT DOUBLE
"qpvc5_dis" FLOAT DOUBLE
"qpvc5_dbf" FLOAT DOUBLE
"qpvc5_dvaf" FLOAT DOUBLE
"qpvc5_dikf" FLOAT DOUBLE
"qpvc5_dise" FLOAT DOUBLE
"qpvc5_drb" FLOAT DOUBLE
"qpvc5_drbm" FLOAT DOUBLE
"qpvc5_dre" FLOAT DOUBLE
"qpvc5_drc" FLOAT DOUBLE
"qpvc5_dcje" FLOAT DOUBLE
"qpvc5_dcjc" FLOAT DOUBLE
"qpvc5_dtf" FLOAT DOUBLE
"qpvc5_abf" FLOAT DOUBLE
"qpvc5_ais" FLOAT DOUBLE
"qpvc5_aise" FLOAT DOUBLE
"qpvc5_arb" FLOAT DOUBLE
"qpve_dis" FLOAT DOUBLE
"qpve_dbf" FLOAT DOUBLE
"qpve_dvaf" FLOAT DOUBLE
"qpve_dikf" FLOAT DOUBLE
"qpve_dise" FLOAT DOUBLE
"qpve_drb" FLOAT DOUBLE
"qpve_drbm" FLOAT DOUBLE
"qpve_dre" FLOAT DOUBLE
"qpve_drc" FLOAT DOUBLE
"qpve_dcje" FLOAT DOUBLE
"qpve_dcjc" FLOAT DOUBLE
"qpve_dtf" FLOAT DOUBLE
"qpve_abf" FLOAT DOUBLE
"qpve_ais" FLOAT DOUBLE
"qpve_aise" FLOAT DOUBLE
"qpve_arb" FLOAT DOUBLE
"qpvf_dis" FLOAT DOUBLE
"qpvf_dbf" FLOAT DOUBLE
"qpvf_dvaf" FLOAT DOUBLE
"qpvf_dikf" FLOAT DOUBLE
"qpvf_dise" FLOAT DOUBLE
"qpvf_drb" FLOAT DOUBLE
"qpvf_drbm" FLOAT DOUBLE
"qpvf_dre" FLOAT DOUBLE
"qpvf_drc" FLOAT DOUBLE
"qpvf_dcje" FLOAT DOUBLE
"qpvf_dcjc" FLOAT DOUBLE
"qpvf_dtf" FLOAT DOUBLE
"qpvf_abf" FLOAT DOUBLE
"qpvf_ais" FLOAT DOUBLE
"qpvf_aise" FLOAT DOUBLE
"qpvf_arb" FLOAT DOUBLE
"qpvg_dis" FLOAT DOUBLE
"qpvg_dbf" FLOAT DOUBLE
"qpvg_dvaf" FLOAT DOUBLE
"qpvg_dikf" FLOAT DOUBLE
"qpvg_dise" FLOAT DOUBLE
"qpvg_drb" FLOAT DOUBLE
"qpvg_drbm" FLOAT DOUBLE
"qpvg_dre" FLOAT DOUBLE
"qpvg_drc" FLOAT DOUBLE
"qpvg_dcje" FLOAT DOUBLE
"qpvg_dcjc" FLOAT DOUBLE
"qpvg_dtf" FLOAT DOUBLE
"qpvg_abf" FLOAT DOUBLE
"qpvg_ais" FLOAT DOUBLE
"qpvg_aise" FLOAT DOUBLE
"qpvg_arb" FLOAT DOUBLE
"qpve5_dis" FLOAT DOUBLE
"qpve5_dbf" FLOAT DOUBLE
"qpve5_dvaf" FLOAT DOUBLE
"qpve5_dikf" FLOAT DOUBLE
"qpve5_dise" FLOAT DOUBLE
"qpve5_drb" FLOAT DOUBLE
"qpve5_drbm" FLOAT DOUBLE
"qpve5_dre" FLOAT DOUBLE
"qpve5_drc" FLOAT DOUBLE
"qpve5_dcje" FLOAT DOUBLE
"qpve5_dcjc" FLOAT DOUBLE
"qpve5_dtf" FLOAT DOUBLE
"qpve5_abf" FLOAT DOUBLE
"qpve5_ais" FLOAT DOUBLE
"qpve5_aise" FLOAT DOUBLE
"qpve5_arb" FLOAT DOUBLE
"qpvf5_dis" FLOAT DOUBLE
"qpvf5_dbf" FLOAT DOUBLE
"qpvf5_dvaf" FLOAT DOUBLE
"qpvf5_dikf" FLOAT DOUBLE
"qpvf5_dise" FLOAT DOUBLE
"qpvf5_drb" FLOAT DOUBLE
"qpvf5_drbm" FLOAT DOUBLE
"qpvf5_dre" FLOAT DOUBLE
"qpvf5_drc" FLOAT DOUBLE
"qpvf5_dcje" FLOAT DOUBLE
"qpvf5_dcjc" FLOAT DOUBLE
"qpvf5_dtf" FLOAT DOUBLE
"qpvf5_abf" FLOAT DOUBLE
"qpvf5_ais" FLOAT DOUBLE
"qpvf5_aise" FLOAT DOUBLE
"qpvf5_arb" FLOAT DOUBLE
"qpvg5_dis" FLOAT DOUBLE
"qpvg5_dbf" FLOAT DOUBLE
"qpvg5_dvaf" FLOAT DOUBLE
"qpvg5_dikf" FLOAT DOUBLE
"qpvg5_dise" FLOAT DOUBLE
"qpvg5_drb" FLOAT DOUBLE
"qpvg5_drbm" FLOAT DOUBLE
"qpvg5_dre" FLOAT DOUBLE
"qpvg5_drc" FLOAT DOUBLE
"qpvg5_dcje" FLOAT DOUBLE
"qpvg5_dcjc" FLOAT DOUBLE
"qpvg5_dtf" FLOAT DOUBLE
"qpvg5_abf" FLOAT DOUBLE
"qpvg5_ais" FLOAT DOUBLE
"qpvg5_aise" FLOAT DOUBLE
"qpvg5_arb" FLOAT DOUBLE
"qnv5_is" FLOAT DOUBLE
"qnv5_ikf" FLOAT DOUBLE
"qnv5_re" FLOAT DOUBLE
"qnv5_cje" FLOAT DOUBLE
"qnv5_cjc" FLOAT DOUBLE
"qnv5_tf" FLOAT DOUBLE
"qnv5_vef" FLOAT DOUBLE
"qnv5_rcx" FLOAT DOUBLE
"qnv5_rbx" FLOAT DOUBLE
"qnv5_rci" FLOAT DOUBLE
"qnv5_rbi" FLOAT DOUBLE
"qnv5_ibei" FLOAT DOUBLE
"qnv5_iben" FLOAT DOUBLE
"qnv5_cjcp" FLOAT DOUBLE
"qnv5_ais" FLOAT DOUBLE
"qnv5_aibei" FLOAT DOUBLE
"qnv5_aiben" FLOAT DOUBLE
"qpv5_is" FLOAT DOUBLE
"qpv5_re" FLOAT DOUBLE
"qpv5_cje" FLOAT DOUBLE
"qpv5_cjc" FLOAT DOUBLE
"qpv5_tf" FLOAT DOUBLE
"qpv5_vef" FLOAT DOUBLE
"qpv5_rcx" FLOAT DOUBLE
"qpv5_rbx" FLOAT DOUBLE
"qpv5_rci" FLOAT DOUBLE
"qpv5_rbi" FLOAT DOUBLE
"qpv5_ibei" FLOAT DOUBLE
"qpv5_iben" FLOAT DOUBLE
"qpv5_cjcp" FLOAT DOUBLE
"qpv5_ais" FLOAT DOUBLE
"qpv5_aibei" FLOAT DOUBLE
"qpv5_aiben" FLOAT DOUBLE
"cdmm_ca" FLOAT DOUBLE
"cdmm_cp" FLOAT DOUBLE
"cdmm_ac" FLOAT DOUBLE
"ctmm_ca" FLOAT DOUBLE
"ctmm_cp" FLOAT DOUBLE
"ctmm_ac" FLOAT DOUBLE
"cmm_ca" FLOAT DOUBLE
"cmm_cp" FLOAT DOUBLE
"cmm_ac" FLOAT DOUBLE
"cmmh_ca" FLOAT DOUBLE
"cmmh_cp" FLOAT DOUBLE
"cmmh_ac" FLOAT DOUBLE
"cdmmh_ca" FLOAT DOUBLE
"cdmmh_cp" FLOAT DOUBLE
"cdmmh_ac" FLOAT DOUBLE
"ctmmh_ca" FLOAT DOUBLE
"ctmmh_cp" FLOAT DOUBLE
"ctmmh_ac" FLOAT DOUBLE
"csandwt3_ca" FLOAT DOUBLE
"csandwt3_cp" FLOAT DOUBLE
"csandwt3_ac" FLOAT DOUBLE
"csandwt4_ca" FLOAT DOUBLE
"csandwt4_cp" FLOAT DOUBLE
"csandwt4_ac" FLOAT DOUBLE
"csandwt5_ca" FLOAT DOUBLE
"csandwt5_cp" FLOAT DOUBLE
"csandwt5_ac" FLOAT DOUBLE
"cp1sub_ca" FLOAT DOUBLE
"cp1sub_cp" FLOAT DOUBLE
"csf2p_factor" FLOAT DOUBLE
"csf2p_ac" FLOAT DOUBLE
"csf3p_factor" FLOAT DOUBLE
"csf3p_ac" FLOAT DOUBLE
"csf3_factor" FLOAT DOUBLE
"csf3_ac" FLOAT DOUBLE
"csf4_factor" FLOAT DOUBLE
"csf4_ac" FLOAT DOUBLE
"csf5_factor" FLOAT DOUBLE
"csf5_ac" FLOAT DOUBLE
"csft4_factor" FLOAT DOUBLE
"csft4_ac" FLOAT DOUBLE
"csft5_factor" FLOAT DOUBLE
"csft5_ac" FLOAT DOUBLE
"csft6_factor" FLOAT DOUBLE
"csft6_ac" FLOAT DOUBLE
"csf3a_factor" FLOAT DOUBLE
"csf3a_ac" FLOAT DOUBLE
"csf4a_factor" FLOAT DOUBLE
"csf4a_ac" FLOAT DOUBLE
"csf5a_factor" FLOAT DOUBLE
"csf5a_ac" FLOAT DOUBLE
"csft4a_factor" FLOAT DOUBLE
"csft4a_ac" FLOAT DOUBLE
"csft5a_factor" FLOAT DOUBLE
"csft5a_ac" FLOAT DOUBLE
"csft6a_factor" FLOAT DOUBLE
"csft6a_ac" FLOAT DOUBLE
"p_cap_c_m" FLOAT DOUBLE
"mosvc_rgmul" FLOAT DOUBLE
"tox_mosvc" FLOAT DOUBLE
"vth0_d_mosvc" FLOAT DOUBLE
"xl_mosvc" FLOAT DOUBLE
"xw_mosvc" FLOAT DOUBLE
"mosvci_rgmul" FLOAT DOUBLE
"tox_mosvci" FLOAT DOUBLE
"vth0_d_mosvci" FLOAT DOUBLE
"xl_mosvci" FLOAT DOUBLE
"xw_mosvci" FLOAT DOUBLE
"mosvc5_rgmul" FLOAT DOUBLE
"tox_mosvc5" FLOAT DOUBLE
"vth0_d_mosvc5" FLOAT DOUBLE
"xl_mosvc5" FLOAT DOUBLE
"xw_mosvc5" FLOAT DOUBLE
"mosvci5_rgmul" FLOAT DOUBLE
"tox_mosvci5" FLOAT DOUBLE
"vth0_d_mosvci5" FLOAT DOUBLE
"xl_mosvci5" FLOAT DOUBLE
"xw_mosvci5" FLOAT DOUBLE
"cif3_factor" FLOAT DOUBLE
"cif3_ac" FLOAT DOUBLE
"cif4_factor" FLOAT DOUBLE
"cif4_ac" FLOAT DOUBLE
"cif5_factor" FLOAT DOUBLE
"cif5_ac" FLOAT DOUBLE
"dn_rs_res_mul" FLOAT DOUBLE
"dn_is_mul_exp" FLOAT DOUBLE
"dn_bot_mul" FLOAT DOUBLE
"dn_sti_mul" FLOAT DOUBLE
"dn_gat_mul" FLOAT DOUBLE
"dp_rs_m" FLOAT DOUBLE
"dp_is_mul_exp" FLOAT DOUBLE
"dp_bot_mul" FLOAT DOUBLE
"dp_sti_mul" FLOAT DOUBLE
"dp_gat_mul" FLOAT DOUBLE
"dnw_rs_m" FLOAT DOUBLE
"dnw_is_mul_exp" FLOAT DOUBLE
"dnw_bot_mul" FLOAT DOUBLE
"dnw_sti_mul" FLOAT DOUBLE
"dnw_gat_mul" FLOAT DOUBLE
"dn5_rs_m" FLOAT DOUBLE
"dn5_is_mul_exp" FLOAT DOUBLE
"dn5_bot_mul" FLOAT DOUBLE
"dn5_sti_mul" FLOAT DOUBLE
"dn5_gat_mul" FLOAT DOUBLE
"dp5_rs_res_mul" FLOAT DOUBLE
"dp5_is_mul_exp" FLOAT DOUBLE
"dp5_bot_mul" FLOAT DOUBLE
"dp5_sti_mul" FLOAT DOUBLE
"dp5_gat_mul" FLOAT DOUBLE
"dnw5_rs_m" FLOAT DOUBLE
"dnw5_is_mul_exp" FLOAT DOUBLE
"dnw5_bot_mul" FLOAT DOUBLE
"dnw5_sti_mul" FLOAT DOUBLE
"dnw5_gat_mul" FLOAT DOUBLE
"dhw2a_rs_m" FLOAT DOUBLE
"dhw2a_is_mul_exp" FLOAT DOUBLE
"dhw2a_bot_mul" FLOAT DOUBLE
"dhw2a_sti_mul" FLOAT DOUBLE
"dhw2a_gat_mul" FLOAT DOUBLE
"dhw2_rs_m" FLOAT DOUBLE
"dhw2_is_mul_exp" FLOAT DOUBLE
"dhw2_bot_mul" FLOAT DOUBLE
"dhw2_sti_mul" FLOAT DOUBLE
"dhw2_gat_mul" FLOAT DOUBLE
"dhw3_rs_m" FLOAT DOUBLE
"dhw3_is_mul_exp" FLOAT DOUBLE
"dhw3_bot_mul" FLOAT DOUBLE
"dhw3_sti_mul" FLOAT DOUBLE
"dhw3_gat_mul" FLOAT DOUBLE
"dfwdpa_rs_res_mul" FLOAT DOUBLE
"dfwdpa_isf_mul_exp" FLOAT DOUBLE
"dfwdpa_isr_mul_exp" FLOAT DOUBLE
"dfwdpa_bot_mul" FLOAT DOUBLE
"dfwdpa_sti_mul" FLOAT DOUBLE
"dfwnsj1_7_rs_mul" FLOAT DOUBLE
"dfwnsj1_7_is_mul_exp" FLOAT DOUBLE
"dfwnsj1_7_bot_mul" FLOAT DOUBLE
"dfwnsj1_10_rs_mul" FLOAT DOUBLE
"dfwnsj1_10_is_mul_exp" FLOAT DOUBLE
"dfwnsj1_10_bot_mul" FLOAT DOUBLE
"dfwnsj1_16c_rs_mul" FLOAT DOUBLE
"dfwnsj1_16c_is_mul_exp" FLOAT DOUBLE
"dfwnsj1_16c_bot_mul" FLOAT DOUBLE
"dpp6_rs_res_mul" FLOAT DOUBLE
"dpp6_is_mul_exp" FLOAT DOUBLE
"dpp6_bot_mul" FLOAT DOUBLE
"dpp6_sti_mul" FLOAT DOUBLE
"dpp6_gat_mul" FLOAT DOUBLE
"dpp6_bv_mul" FLOAT DOUBLE
"dpp7_rs_res_mul" FLOAT DOUBLE
"dpp7_is_mul_exp" FLOAT DOUBLE
"dpp7_bot_mul" FLOAT DOUBLE
"dpp7_sti_mul" FLOAT DOUBLE
"dpp7_gat_mul" FLOAT DOUBLE
"dpp7_bv_mul" FLOAT DOUBLE
"dnp7_rs_res_mul" FLOAT DOUBLE
"dnp7_is_mul_exp" FLOAT DOUBLE
"dnp7_bot_mul" FLOAT DOUBLE
"dnp7_sti_mul" FLOAT DOUBLE
"dnp7_gat_mul" FLOAT DOUBLE
"dnp7_bv_mul" FLOAT DOUBLE
"ds5_rs_res_mul" FLOAT DOUBLE
"ds5_is_mul_exp" FLOAT DOUBLE
"ds5_cjorbot" FLOAT DOUBLE
"ds5a_rs_mul" FLOAT DOUBLE
"ds5a_isf_mul_exp" FLOAT DOUBLE
"ds5a_isr_mul_exp" FLOAT DOUBLE
"ds5a_bot_mul" FLOAT DOUBLE
"ds5a_sti_mul" FLOAT DOUBLE
"ds5a_gat_mul" FLOAT DOUBLE
"ds5a_d2_isf_mul_exp" FLOAT DOUBLE
"ds5a_d2_rs_mul" FLOAT DOUBLE
"dfwdn5_rs_mul" FLOAT DOUBLE
"dfwdn5_is_mul_exp" FLOAT DOUBLE
"dfwdn5_bot_mul" FLOAT DOUBLE
"dfwdnt_rs_mul" FLOAT DOUBLE
"dfwdnt_is_mul_exp" FLOAT DOUBLE
"dfwdnt_bot_mul" FLOAT DOUBLE
"dfwdnu_rs_mul" FLOAT DOUBLE
"dfwdnu_is_mul_exp" FLOAT DOUBLE
"dfwdnu_bot_mul" FLOAT DOUBLE
"dfwdpta_rs_mul" FLOAT DOUBLE
"dfwdpta_is_mul_exp" FLOAT DOUBLE
"dfwdpta_bot_mul" FLOAT DOUBLE
"dfwdptb_rs_mul" FLOAT DOUBLE
"dfwdptb_is_mul_exp" FLOAT DOUBLE
"dfwdptb_bot_mul" FLOAT DOUBLE
"dfwdpu_rs_mul" FLOAT DOUBLE
"dfwdpu_is_mul_exp" FLOAT DOUBLE
"dfwdpu_bot_mul" FLOAT DOUBLE
"dnpa_rs_res_mul" FLOAT DOUBLE
"dnpa_is_mul_exp" FLOAT DOUBLE
"dnpa_bot_mul" FLOAT DOUBLE
"dnpa_bv_mul" FLOAT DOUBLE
"dza_rs_res_mul" FLOAT DOUBLE
"dza_is_mul_exp" FLOAT DOUBLE
"dza_bot_mul" FLOAT DOUBLE
"dza_sti_mul" FLOAT DOUBLE
"dza_gat_mul" FLOAT DOUBLE
"dza_bv_mul" FLOAT DOUBLE
"dzbti_rs_res_mul" FLOAT DOUBLE
"dzbti_is_mul_exp" FLOAT DOUBLE
"dzbti_bot_mul" FLOAT DOUBLE
"dzbti_sti_mul" FLOAT DOUBLE
"dzbti_bv_mul" FLOAT DOUBLE
"dnn_rs_m" FLOAT DOUBLE
"dnn_is_mul_exp" FLOAT DOUBLE
"dnn_bot_mul" FLOAT DOUBLE
"dnn_sti_mul" FLOAT DOUBLE
"dnn_gat_mul" FLOAT DOUBLE
"dnn5_rs_m" FLOAT DOUBLE
"dnn5_is_mul_exp" FLOAT DOUBLE
"dnn5_bot_mul" FLOAT DOUBLE
"dnn5_sti_mul" FLOAT DOUBLE
"dnn5_gat_mul" FLOAT DOUBLE
"dfwdnha_rs_mul" FLOAT DOUBLE
"dfwdnha_isf_mul_exp" FLOAT DOUBLE
"dfwdnha_isr_mul_exp" FLOAT DOUBLE
"dfwdnha_bot_mul" FLOAT DOUBLE
"dfwdnha_sti_mul" FLOAT DOUBLE
"dfwdnha_gat_mul" FLOAT DOUBLE
"dfwdnhb_rs_mul" FLOAT DOUBLE
"dfwdnhb_isf_mul_exp" FLOAT DOUBLE
"dfwdnhb_isr_mul_exp" FLOAT DOUBLE
"dfwdnhb_bot_mul" FLOAT DOUBLE
"dfwdnhb_sti_mul" FLOAT DOUBLE
"dfwdnhb_gat_mul" FLOAT DOUBLE
"dfwdnhc_rs_mul" FLOAT DOUBLE
"dfwdnhc_isf_mul_exp" FLOAT DOUBLE
"dfwdnhc_isr_mul_exp" FLOAT DOUBLE
"dfwdnhc_bot_mul" FLOAT DOUBLE
"dfwdnhd_rs_mul" FLOAT DOUBLE
"dfwdnhd_isf_mul_exp" FLOAT DOUBLE
"dfwdnhd_isr_mul_exp" FLOAT DOUBLE
"dfwdnhd_bot_mul" FLOAT DOUBLE
"dfwdnhe_rs_mul" FLOAT DOUBLE
"dfwdnhe_isf_mul_exp" FLOAT DOUBLE
"dfwdnhe_isr_mul_exp" FLOAT DOUBLE
"dfwdnhe_bot_mul" FLOAT DOUBLE
"dfwdnhf_rs_mul" FLOAT DOUBLE
"dfwdnhf_isf_mul_exp" FLOAT DOUBLE
"dfwdnhf_isr_mul_exp" FLOAT DOUBLE
"dfwdnhf_bot_mul" FLOAT DOUBLE
"dfwdpha_rs_mul" FLOAT DOUBLE
"dfwdpha_isf_mul_exp" FLOAT DOUBLE
"dfwdpha_isr_mul_exp" FLOAT DOUBLE
"dfwdpha_bot_mul" FLOAT DOUBLE
"dfwdpha_sti_mul" FLOAT DOUBLE
"dfwdpha_gat_mul" FLOAT DOUBLE
"dfwdphb_rs_mul" FLOAT DOUBLE
"dfwdphb_isf_mul_exp" FLOAT DOUBLE
"dfwdphb_isr_mul_exp" FLOAT DOUBLE
"dfwdphb_bot_mul" FLOAT DOUBLE
"dfwdphb_sti_mul" FLOAT DOUBLE
"dfwdphb_gat_mul" FLOAT DOUBLE
"dfwdphc_rs_mul" FLOAT DOUBLE
"dfwdphc_isf_mul_exp" FLOAT DOUBLE
"dfwdphc_isr_mul_exp" FLOAT DOUBLE
"dfwdphc_bot_mul" FLOAT DOUBLE
"dfwdphc_sti_mul" FLOAT DOUBLE
"dfwdphc_gat_mul" FLOAT DOUBLE
"dfwdphd_rs_mul" FLOAT DOUBLE
"dfwdphd_isf_mul_exp" FLOAT DOUBLE
"dfwdphd_isr_mul_exp" FLOAT DOUBLE
"dfwdphd_bot_mul" FLOAT DOUBLE
"dfwdphd_sti_mul" FLOAT DOUBLE
"dfwdphd_gat_mul" FLOAT DOUBLE
"dfwdphe_rs_mul" FLOAT DOUBLE
"dfwdphe_isf_mul_exp" FLOAT DOUBLE
"dfwdphe_isr_mul_exp" FLOAT DOUBLE
"dfwdphe_bot_mul" FLOAT DOUBLE
"dfwdphe_sti_mul" FLOAT DOUBLE
"dfwdphe_gat_mul" FLOAT DOUBLE
"dfwdphf_rs_mul" FLOAT DOUBLE
"dfwdphf_isf_mul_exp" FLOAT DOUBLE
"dfwdphf_isr_mul_exp" FLOAT DOUBLE
"dfwdphf_bot_mul" FLOAT DOUBLE
"dfwdphf_sti_mul" FLOAT DOUBLE
"dfwdphf_gat_mul" FLOAT DOUBLE
"dfwdpb_rs_mul" FLOAT DOUBLE
"dfwdpb_isf_mul_exp" FLOAT DOUBLE
"dfwdpb_isr_mul_exp" FLOAT DOUBLE
"dfwdpb_bot_mul" FLOAT DOUBLE
"dfwdpb_sti_mul" FLOAT DOUBLE
"dfwdpb_gat_mul" FLOAT DOUBLE
"dfwdpc_rs_mul" FLOAT DOUBLE
"dfwdpc_isf_mul_exp" FLOAT DOUBLE
"dfwdpc_isr_mul_exp" FLOAT DOUBLE
"dfwdpc_bot_mul" FLOAT DOUBLE
"dfwdpc_sti_mul" FLOAT DOUBLE
"dfwdpc_gat_mul" FLOAT DOUBLE
"dfwdpd_rs_mul" FLOAT DOUBLE
"dfwdpd_isf_mul_exp" FLOAT DOUBLE
"dfwdpd_isr_mul_exp" FLOAT DOUBLE
"dfwdpd_bot_mul" FLOAT DOUBLE
"dfwdpd_sti_mul" FLOAT DOUBLE
"dfwdpd_gat_mul" FLOAT DOUBLE
"dfwdpe_rs_mul" FLOAT DOUBLE
"dfwdpe_isf_mul_exp" FLOAT DOUBLE
"dfwdpe_isr_mul_exp" FLOAT DOUBLE
"dfwdpe_bot_mul" FLOAT DOUBLE
"dfwdpe_sti_mul" FLOAT DOUBLE
"dfwdpe_gat_mul" FLOAT DOUBLE
"dfwdpf_rs_mul" FLOAT DOUBLE
"dfwdpf_isf_mul_exp" FLOAT DOUBLE
"dfwdpf_isr_mul_exp" FLOAT DOUBLE
"dfwdpf_bot_mul" FLOAT DOUBLE
"dfwdpf_sti_mul" FLOAT DOUBLE
"dfwdpf_gat_mul" FLOAT DOUBLE
"nn_toxe" FLOAT DOUBLE
"nn_u0_m" FLOAT DOUBLE
"nn_vth0_d" FLOAT DOUBLE
"nn_xl" FLOAT DOUBLE
"nn_xw" FLOAT DOUBLE
"nn_rdsw_m" FLOAT DOUBLE
"nn_cgdo" FLOAT DOUBLE
"nn_cgdl" FLOAT DOUBLE
"nn_cgso" FLOAT DOUBLE
"nn_cgsl" FLOAT DOUBLE
"nn_cs_f" FLOAT DOUBLE
"nn_vtmm" FLOAT DOUBLE
"nn_u0mm" FLOAT DOUBLE
"ne_toxe" FLOAT DOUBLE
"ne_u0_mul" FLOAT DOUBLE
"ne_nfactor_mul" FLOAT DOUBLE
"ne_vth0_add" FLOAT DOUBLE
"ne_xl" FLOAT DOUBLE
"ne_xw" FLOAT DOUBLE
"ne_cgdo" FLOAT DOUBLE
"ne_cgdl" FLOAT DOUBLE
"ne_cgso" FLOAT DOUBLE
"ne_cgsl" FLOAT DOUBLE
"ne_vtmm" FLOAT DOUBLE
"ne_u0mm" FLOAT DOUBLE
"pe_toxe" FLOAT DOUBLE
"pe_u0_mul" FLOAT DOUBLE
"pe_nfactor_mul" FLOAT DOUBLE
"pe_vth0_add" FLOAT DOUBLE
"pe_rsh" FLOAT DOUBLE
"pe_rshg" FLOAT DOUBLE
"pe_xl" FLOAT DOUBLE
"pe_xw" FLOAT DOUBLE
"pe_rdsw_mul" FLOAT DOUBLE
"pe_cgdo" FLOAT DOUBLE
"pe_cgdl" FLOAT DOUBLE
"pe_cgso" FLOAT DOUBLE
"pe_cgsl" FLOAT DOUBLE
"pe_vtmm" FLOAT DOUBLE
"pe_u0mm" FLOAT DOUBLE
"ne5_toxe" FLOAT DOUBLE
"ne5_nfactor_m" FLOAT DOUBLE
"ne5_k2_m" FLOAT DOUBLE
"ne5_vth0_d" FLOAT DOUBLE
"ne5_xl" FLOAT DOUBLE
"ne5_xw" FLOAT DOUBLE
"ne5_rdsw_m" FLOAT DOUBLE
"ne5_cgdo" FLOAT DOUBLE
"ne5_cgdl" FLOAT DOUBLE
"ne5_cgso" FLOAT DOUBLE
"ne5_cgsl" FLOAT DOUBLE
"ne5_vtmm" FLOAT DOUBLE
"ne5_u0mm" FLOAT DOUBLE
"pe5_toxe" FLOAT DOUBLE
"pe5_u0_m" FLOAT DOUBLE
"pe5_nfactor_m" FLOAT DOUBLE
"pe5_vth0_d" FLOAT DOUBLE
"pe5_xl" FLOAT DOUBLE
"pe5_xw" FLOAT DOUBLE
"pe5_cgdo" FLOAT DOUBLE
"pe5_cgdl" FLOAT DOUBLE
"pe5_cgso" FLOAT DOUBLE
"pe5_cgsl" FLOAT DOUBLE
"pe5_vtmm" FLOAT DOUBLE
"pe5_u0mm" FLOAT DOUBLE
"nmva_tox" FLOAT DOUBLE
"nmva_nsubc" FLOAT DOUBLE
"nmva_mueph1" FLOAT DOUBLE
"nmva_rd" FLOAT DOUBLE
"nmva_rdvd" FLOAT DOUBLE
"nmva_rs" FLOAT DOUBLE
"pmva_tox" FLOAT DOUBLE
"pmva_nsubc" FLOAT DOUBLE
"pmva_mueph1" FLOAT DOUBLE
"pmva_rd" FLOAT DOUBLE
"pmva_rdvd" FLOAT DOUBLE
"pmva_rs" FLOAT DOUBLE
"nhsj1_7_tox" FLOAT DOUBLE
"nhsj1_7_nsubc_m" FLOAT DOUBLE
"nhsj1_7_rdrmue" FLOAT DOUBLE
"nhsj1_7_rdrvmax" FLOAT DOUBLE
"nhsj1_7_loverld" FLOAT DOUBLE
"nhsj1_10_tox" FLOAT DOUBLE
"nhsj1_10_nsubc_m" FLOAT DOUBLE
"nhsj1_10_rdrmue" FLOAT DOUBLE
"nhsj1_10_rdrvmax" FLOAT DOUBLE
"nhsj1_10_loverld" FLOAT DOUBLE
"nhsj1_16c_tox" FLOAT DOUBLE
"nhsj1_16c_nsubc_m" FLOAT DOUBLE
"nhsj1_16c_rdrmue" FLOAT DOUBLE
"nhsj1_16c_rdrvmax" FLOAT DOUBLE
"nhsj1_16c_loverld" FLOAT DOUBLE
"phsj1_7_tox" FLOAT DOUBLE
"phsj1_7_nsubc_m" FLOAT DOUBLE
"phsj1_7_rdrmue" FLOAT DOUBLE
"phsj1_7_rdrvmax" FLOAT DOUBLE
"phsj1_7_loverld" FLOAT DOUBLE
"phsj1_10_tox" FLOAT DOUBLE
"phsj1_10_nsubc_m" FLOAT DOUBLE
"phsj1_10_rdrmue" FLOAT DOUBLE
"phsj1_10_rdrvmax" FLOAT DOUBLE
"phsj1_10_loverld" FLOAT DOUBLE
"phsj1_16c_tox" FLOAT DOUBLE
"phsj1_16c_nsubc_m" FLOAT DOUBLE
"phsj1_16c_rdrmue" FLOAT DOUBLE
"phsj1_16c_rdrvmax" FLOAT DOUBLE
"phsj1_16c_loverld" FLOAT DOUBLE
"nn5_toxe" FLOAT DOUBLE
"nn5_u0_m" FLOAT DOUBLE
"nn5_k1" FLOAT DOUBLE
"nn5_vth0_d" FLOAT DOUBLE
"nn5_xl" FLOAT DOUBLE
"nn5_xw" FLOAT DOUBLE
"nn5_rdsw_m" FLOAT DOUBLE
"nn5_cgdo" FLOAT DOUBLE
"nn5_cgdl" FLOAT DOUBLE
"nn5_cgso" FLOAT DOUBLE
"nn5_cgsl" FLOAT DOUBLE
"nn5_cs_f" FLOAT DOUBLE
"nn5_vtmm" FLOAT DOUBLE
"nn5_u0mm" FLOAT DOUBLE
"nn5_jf_beta" FLOAT DOUBLE
"nn5_jf_vto" FLOAT DOUBLE
"nhvta_tox" FLOAT DOUBLE
"nhvta_nsubc" FLOAT DOUBLE
"nhvta_mueph1" FLOAT DOUBLE
"nhvta_rd" FLOAT DOUBLE
"nhvta_rdvd" FLOAT DOUBLE
"nhvta_rd23" FLOAT DOUBLE
"nhvta_loverld" FLOAT DOUBLE
"nhvta_cjs" FLOAT DOUBLE
"nhvta_cjsws" FLOAT DOUBLE
"nhvta_cjswgs" FLOAT DOUBLE
"nhvtb_l0" FLOAT DOUBLE
"nhvtb_l1" FLOAT DOUBLE
"nhvtb_l2" FLOAT DOUBLE
"nhvtb_l3" FLOAT DOUBLE
"nhvtb_l4" FLOAT DOUBLE
"nhvtb_tox" FLOAT DOUBLE
"nhvtb_nsubc" FLOAT DOUBLE
"nhvtb_mueph1" FLOAT DOUBLE
"nhvtb_rd" FLOAT DOUBLE
"nhvtb_rdvd" FLOAT DOUBLE
"nhvtb_loverld" FLOAT DOUBLE
"nhvtb_cjs" FLOAT DOUBLE
"nhvtb_cjsws" FLOAT DOUBLE
"nhvtb_cjswgs" FLOAT DOUBLE
"phvta_tox" FLOAT DOUBLE
"phvta_nsubc" FLOAT DOUBLE
"phvta_mueph1" FLOAT DOUBLE
"phvta_rd" FLOAT DOUBLE
"phvta_rdvd" FLOAT DOUBLE
"phvtb_l0" FLOAT DOUBLE
"phvtb_l1" FLOAT DOUBLE
"phvtb_l2" FLOAT DOUBLE
"phvtb_l3" FLOAT DOUBLE
"phvtb_l4" FLOAT DOUBLE
"phvtb_tox" FLOAT DOUBLE
"phvtb_nsubc" FLOAT DOUBLE
"phvtb_mueph1" FLOAT DOUBLE
"phvtb_rd" FLOAT DOUBLE
"phvtb_rdvd" FLOAT DOUBLE
"phvtb_loverld" FLOAT DOUBLE
"nhvu_tox" FLOAT DOUBLE
"nhvu_nsubc" FLOAT DOUBLE
"nhvu_mueph1" FLOAT DOUBLE
"nhvu_rd" FLOAT DOUBLE
"nhvu_rdvd" FLOAT DOUBLE
"nhvu_rd23" FLOAT DOUBLE
"nhvu_loverld" FLOAT DOUBLE
"phvu_tox" FLOAT DOUBLE
"phvu_nsubc" FLOAT DOUBLE
"phvu_mueph1" FLOAT DOUBLE
"phvu_rd" FLOAT DOUBLE
"phvu_rdvd" FLOAT DOUBLE
"phvu_loverld" FLOAT DOUBLE
"nel_toxe" FLOAT DOUBLE
"nel_u0_m" FLOAT DOUBLE
"nel_nfactor_m" FLOAT DOUBLE
"nel_k1_m" FLOAT DOUBLE
"nel_k2_m" FLOAT DOUBLE
"nel_vth0_d" FLOAT DOUBLE
"nel_xl" FLOAT DOUBLE
"nel_xw" FLOAT DOUBLE
"nel_rdsw_m" FLOAT DOUBLE
"nel_cgdo" FLOAT DOUBLE
"nel_cgdl" FLOAT DOUBLE
"nel_cgso" FLOAT DOUBLE
"nel_cgsl" FLOAT DOUBLE
"nel_vtmm" FLOAT DOUBLE
"nel_u0mm" FLOAT DOUBLE
"dnl_is_mul_exp" FLOAT DOUBLE
"dnl_bot_mul" FLOAT DOUBLE
"dnl_sti_mul" FLOAT DOUBLE
"dnl_gat_mul" FLOAT DOUBLE
"pel_toxe" FLOAT DOUBLE
"pel_u0_m" FLOAT DOUBLE
"pel_nfactor_m" FLOAT DOUBLE
"pel_k1_m" FLOAT DOUBLE
"pel_k2_m" FLOAT DOUBLE
"pel_vth0_d" FLOAT DOUBLE
"pel_xl" FLOAT DOUBLE
"pel_xw" FLOAT DOUBLE
"pel_rdsw_m" FLOAT DOUBLE
"pel_cgdo" FLOAT DOUBLE
"pel_cgdl" FLOAT DOUBLE
"pel_cgso" FLOAT DOUBLE
"pel_cgsl" FLOAT DOUBLE
"pel_vtmm" FLOAT DOUBLE
"pel_u0mm" FLOAT DOUBLE
"dpl_is_mul_exp" FLOAT DOUBLE
"dpl_bot_mul" FLOAT DOUBLE
"dpl_sti_mul" FLOAT DOUBLE
"dpl_gat_mul" FLOAT DOUBLE
"ndhvt_tox" FLOAT DOUBLE
"ndhvt_nsubc" FLOAT DOUBLE
"ndhvt_rdrmue" FLOAT DOUBLE
"ndhvt_rdrvmax" FLOAT DOUBLE
"ndhvt_loverld" FLOAT DOUBLE
"nisj1_16_doisme" FLOAT DOUBLE
"nisj1_16_dprs" FLOAT DOUBLE
"nisj1_16_tox" FLOAT DOUBLE
"nisj1_16_mueph1" FLOAT DOUBLE
"nisj1_16_rd" FLOAT DOUBLE
"nisj1_16_dcje" FLOAT DOUBLE
"nisj1_16_dcjc" FLOAT DOUBLE
"nisj1_16_dtf" FLOAT DOUBLE
"ndhvta_tox" FLOAT DOUBLE
"ndhvta_nsubc" FLOAT DOUBLE
"ndhvta_rdrmue" FLOAT DOUBLE
"ndhvta_rdrvmax" FLOAT DOUBLE
"ndhvta_loverld" FLOAT DOUBLE
"nd5_avt" FLOAT DOUBLE
"nd5_au0" FLOAT DOUBLE
"nd5_mos1_k1" FLOAT DOUBLE
"nd5_mos1_tox" FLOAT DOUBLE
"nd5_mos1_u0_m" FLOAT DOUBLE
"nd5_mos1_vth0_d" FLOAT DOUBLE
"nd5_mos1_xl" FLOAT DOUBLE
"nd5_mos1_xw" FLOAT DOUBLE
"nd5_mos2_k1" FLOAT DOUBLE
"nhvra_tox" FLOAT DOUBLE
"nhvra_nsubc_m" FLOAT DOUBLE
"nhvra_vfbc_m" FLOAT DOUBLE
"nhvra_mueph1_m" FLOAT DOUBLE
"nhvra_vmax_m" FLOAT DOUBLE
"nhvra_rdrmue" FLOAT DOUBLE
"nhvra_rdrvmax" FLOAT DOUBLE
"nhvra_lovers" FLOAT DOUBLE
"nhvra_loverld" FLOAT DOUBLE
"nhvra_cjd" FLOAT DOUBLE
"nhvra_cjswd" FLOAT DOUBLE
"nhvra_cjswgd" FLOAT DOUBLE
"nhvra_cjs" FLOAT DOUBLE
"nhvra_cjsws" FLOAT DOUBLE
"nhvra_cjswgs" FLOAT DOUBLE
"nhvrb_tox" FLOAT DOUBLE
"nhvrb_nsubc_m" FLOAT DOUBLE
"nhvrb_vfbc_m" FLOAT DOUBLE
"nhvrb_mueph1_m" FLOAT DOUBLE
"nhvrb_vmax_m" FLOAT DOUBLE
"nhvrb_rdrmue" FLOAT DOUBLE
"nhvrb_rdrvmax" FLOAT DOUBLE
"nhvrb_lovers" FLOAT DOUBLE
"nhvrb_loverld" FLOAT DOUBLE
"nhvrb_cjd" FLOAT DOUBLE
"nhvrb_cjswd" FLOAT DOUBLE
"nhvrb_cjswgd" FLOAT DOUBLE
"nhvrb_cjs" FLOAT DOUBLE
"nhvrb_cjsws" FLOAT DOUBLE
"nhvrb_cjswgs" FLOAT DOUBLE
"nhvrc_tox" FLOAT DOUBLE
"nhvrc_nsubc_m" FLOAT DOUBLE
"nhvrc_vfbc_m" FLOAT DOUBLE
"nhvrc_mueph1_m" FLOAT DOUBLE
"nhvrc_vmax_m" FLOAT DOUBLE
"nhvrc_rdrmue" FLOAT DOUBLE
"nhvrc_rdrvmax" FLOAT DOUBLE
"nhvrc_lovers" FLOAT DOUBLE
"nhvrc_loverld" FLOAT DOUBLE
"nhvrc_cjd" FLOAT DOUBLE
"nhvrc_cjswd" FLOAT DOUBLE
"nhvrc_cjswgd" FLOAT DOUBLE
"nhvrc_cjs" FLOAT DOUBLE
"nhvrc_cjsws" FLOAT DOUBLE
"nhvrc_cjswgs" FLOAT DOUBLE
"nhvrd_tox" FLOAT DOUBLE
"nhvrd_nsubc_m" FLOAT DOUBLE
"nhvrd_vfbc_m" FLOAT DOUBLE
"nhvrd_mueph1_m" FLOAT DOUBLE
"nhvrd_vmax_m" FLOAT DOUBLE
"nhvrd_rdrmue" FLOAT DOUBLE
"nhvrd_rdrvmax" FLOAT DOUBLE
"nhvrd_lovers" FLOAT DOUBLE
"nhvrd_loverld" FLOAT DOUBLE
"nhvrd_cjd" FLOAT DOUBLE
"nhvrd_cjswd" FLOAT DOUBLE
"nhvrd_cjswgd" FLOAT DOUBLE
"nhvrd_cjs" FLOAT DOUBLE
"nhvrd_cjsws" FLOAT DOUBLE
"nhvrd_cjswgs" FLOAT DOUBLE
"nhvre_tox" FLOAT DOUBLE
"nhvre_nsubc_m" FLOAT DOUBLE
"nhvre_vfbc_m" FLOAT DOUBLE
"nhvre_mueph1_m" FLOAT DOUBLE
"nhvre_vmax_m" FLOAT DOUBLE
"nhvre_rdrmue" FLOAT DOUBLE
"nhvre_rdrvmax" FLOAT DOUBLE
"nhvre_lovers" FLOAT DOUBLE
"nhvre_loverld" FLOAT DOUBLE
"nhvre_cjd" FLOAT DOUBLE
"nhvre_cjswd" FLOAT DOUBLE
"nhvre_cjswgd" FLOAT DOUBLE
"nhvre_cjs" FLOAT DOUBLE
"nhvre_cjsws" FLOAT DOUBLE
"nhvre_cjswgs" FLOAT DOUBLE
"nhvrf_tox" FLOAT DOUBLE
"nhvrf_nsubc_m" FLOAT DOUBLE
"nhvrf_vfbc_m" FLOAT DOUBLE
"nhvrf_mueph1_m" FLOAT DOUBLE
"nhvrf_vmax_m" FLOAT DOUBLE
"nhvrf_rdrmue" FLOAT DOUBLE
"nhvrf_rdrvmax" FLOAT DOUBLE
"nhvrf_lovers" FLOAT DOUBLE
"nhvrf_loverld" FLOAT DOUBLE
"nhvrf_cjd" FLOAT DOUBLE
"nhvrf_cjswd" FLOAT DOUBLE
"nhvrf_cjswgd" FLOAT DOUBLE
"nhvrf_cjs" FLOAT DOUBLE
"nhvrf_cjsws" FLOAT DOUBLE
"nhvrf_cjswgs" FLOAT DOUBLE
"phvra_tox" FLOAT DOUBLE
"phvra_nsubc_mul" FLOAT DOUBLE
"phvra_vfbc_mul" FLOAT DOUBLE
"phvra_mueph1_mul" FLOAT DOUBLE
"phvra_vmax_mul" FLOAT DOUBLE
"phvra_rdrmue" FLOAT DOUBLE
"phvra_rdrvmax" FLOAT DOUBLE
"phvra_loverld" FLOAT DOUBLE
"phvrb_tox" FLOAT DOUBLE
"phvrb_nsubc_mul" FLOAT DOUBLE
"phvrb_vfbc_mul" FLOAT DOUBLE
"phvrb_mueph1_mul" FLOAT DOUBLE
"phvrb_vmax_mul" FLOAT DOUBLE
"phvrb_rdrmue" FLOAT DOUBLE
"phvrb_rdrvmax" FLOAT DOUBLE
"phvrb_loverld" FLOAT DOUBLE
"phvrc_tox" FLOAT DOUBLE
"phvrc_nsubc_mul" FLOAT DOUBLE
"phvrc_vfbc_mul" FLOAT DOUBLE
"phvrc_mueph1_mul" FLOAT DOUBLE
"phvrc_vmax_mul" FLOAT DOUBLE
"phvrc_rdrmue" FLOAT DOUBLE
"phvrc_rdrvmax" FLOAT DOUBLE
"phvrc_loverld" FLOAT DOUBLE
"phvrd_tox" FLOAT DOUBLE
"phvrd_nsubc_mul" FLOAT DOUBLE
"phvrd_vfbc_mul" FLOAT DOUBLE
"phvrd_mueph1_mul" FLOAT DOUBLE
"phvrd_vmax_mul" FLOAT DOUBLE
"phvrd_rdrmue" FLOAT DOUBLE
"phvrd_rdrvmax" FLOAT DOUBLE
"phvrd_loverld" FLOAT DOUBLE
"phvre_tox" FLOAT DOUBLE
"phvre_nsubc_mul" FLOAT DOUBLE
"phvre_vfbc_mul" FLOAT DOUBLE
"phvre_mueph1_mul" FLOAT DOUBLE
"phvre_vmax_mul" FLOAT DOUBLE
"phvre_rdrmue" FLOAT DOUBLE
"phvre_rdrvmax" FLOAT DOUBLE
"phvre_loverld" FLOAT DOUBLE
"phvrf_tox" FLOAT DOUBLE
"phvrf_nsubc_mul" FLOAT DOUBLE
"phvrf_vfbc_mul" FLOAT DOUBLE
"phvrf_mueph1_mul" FLOAT DOUBLE
"phvrf_vmax_mul" FLOAT DOUBLE
"phvrf_rdrmue" FLOAT DOUBLE
"phvrf_rdrvmax" FLOAT DOUBLE
"phvrf_loverld" FLOAT DOUBLE
"pmvb_tox" FLOAT DOUBLE
"pmvb_vfbc_mul" FLOAT DOUBLE
"pmvb_mueph1_mul" FLOAT DOUBLE
"pmvb_vmax_mul" FLOAT DOUBLE
"pmvb_rdrmue" FLOAT DOUBLE
"pmvb_rdrvmax" FLOAT DOUBLE
"pmvc_tox" FLOAT DOUBLE
"pmvc_vfbc_mul" FLOAT DOUBLE
"pmvc_mueph1_mul" FLOAT DOUBLE
"pmvc_vmax_mul" FLOAT DOUBLE
"pmvc_rdrmue" FLOAT DOUBLE
"pmvc_rdrvmax" FLOAT DOUBLE
"pmvd_tox" FLOAT DOUBLE
"pmvd_vfbc_mul" FLOAT DOUBLE
"pmvd_mueph1_mul" FLOAT DOUBLE
"pmvd_vmax_mul" FLOAT DOUBLE
"pmvd_rdrmue" FLOAT DOUBLE
"pmvd_rdrvmax" FLOAT DOUBLE
"pmve_tox" FLOAT DOUBLE
"pmve_vfbc_mul" FLOAT DOUBLE
"pmve_mueph1_mul" FLOAT DOUBLE
"pmve_vmax_mul" FLOAT DOUBLE
"pmve_rdrmue" FLOAT DOUBLE
"pmve_rdrvmax" FLOAT DOUBLE
"pmvf_tox" FLOAT DOUBLE
"pmvf_vfbc_mul" FLOAT DOUBLE
"pmvf_mueph1_mul" FLOAT DOUBLE
"pmvf_vmax_mul" FLOAT DOUBLE
"pmvf_rdrmue" FLOAT DOUBLE
"pmvf_rdrvmax" FLOAT DOUBLE
"ndhvrd_tox" FLOAT DOUBLE
"ndhvrd_nsubc" FLOAT DOUBLE
"ndhvrd_vmax_m" FLOAT DOUBLE
"ndhvrd_rdrmue" FLOAT DOUBLE
"ndhvrd_rdrvmax" FLOAT DOUBLE
"ndhvrd_loverld" FLOAT DOUBLE
"ndhvrf_tox" FLOAT DOUBLE
"ndhvrf_nsubc_m" FLOAT DOUBLE
"ndhvrf_mueph1_m" FLOAT DOUBLE
"ndhvrf_vmax_m" FLOAT DOUBLE
"ndhvrf_rdrmue" FLOAT DOUBLE
"ndhvrf_rdrvmax" FLOAT DOUBLE
"ndhvrf_loverld" FLOAT DOUBLE
"rnw_rsh" FLOAT DOUBLE
"rnw_dw" FLOAT DOUBLE
"rnw_ar" FLOAT DOUBLE
"rdn_rsh" FLOAT DOUBLE
"rdn_dw" FLOAT DOUBLE
"rdn_ar" FLOAT DOUBLE
"rdp_rsh" FLOAT DOUBLE
"rdp_dw" FLOAT DOUBLE
"rdp_ar" FLOAT DOUBLE
"rnw5_rsh" FLOAT DOUBLE
"rnw5_dw" FLOAT DOUBLE
"rnw5_ar" FLOAT DOUBLE
"rdn5_rsh" FLOAT DOUBLE
"rdn5_dw" FLOAT DOUBLE
"rdn5_ar" FLOAT DOUBLE
"rdp5_rsh" FLOAT DOUBLE
"rdp5_dw" FLOAT DOUBLE
"rdp5_ar" FLOAT DOUBLE
"rnp1_rsh" FLOAT DOUBLE
"rnp1_dw" FLOAT DOUBLE
"rnp1_ar" FLOAT DOUBLE
"rpp1_rsh" FLOAT DOUBLE
"rpp1_dw" FLOAT DOUBLE
"rpp1_ar" FLOAT DOUBLE
"rpp1s_rsh" FLOAT DOUBLE
"rpp1s_dw" FLOAT DOUBLE
"rpp1s_ar" FLOAT DOUBLE
"rnp1h_rsh" FLOAT DOUBLE
"rnp1h_dw" FLOAT DOUBLE
"rnp1h_ar" FLOAT DOUBLE
"rpp1k1_rsh" FLOAT DOUBLE
"rpp1k1_dw" FLOAT DOUBLE
"rpp1k1_ar" FLOAT DOUBLE
"rm1_rsh" FLOAT DOUBLE
"rm1_dw" FLOAT DOUBLE
"rm2_rsh" FLOAT DOUBLE
"rm2_dw" FLOAT DOUBLE
"rm3_rsh" FLOAT DOUBLE
"rm3_dw" FLOAT DOUBLE
"rm4_rsh" FLOAT DOUBLE
"rm4_dw" FLOAT DOUBLE
"rm5_rsh" FLOAT DOUBLE
"rm5_dw" FLOAT DOUBLE
"rmtp_rsh" FLOAT DOUBLE
"rmtp_dw" FLOAT DOUBLE
"rmtpl_rsh" FLOAT DOUBLE
"rmtpl_dw" FLOAT DOUBLE
"rmrdl_rsh" FLOAT DOUBLE
"rctdn_rsh" FLOAT DOUBLE
"rsildn_rsh" FLOAT DOUBLE
"rsildn_dw" FLOAT DOUBLE
"rctdp_rsh" FLOAT DOUBLE
"rsildp_rsh" FLOAT DOUBLE
"rsildp_dw" FLOAT DOUBLE
"rctp1_rsh" FLOAT DOUBLE
"rsilnp1_rsh" FLOAT DOUBLE
"rsilnp1_dw" FLOAT DOUBLE
"rsilpp1_rsh" FLOAT DOUBLE
"rsilpp1_dw" FLOAT DOUBLE
"pfuse_rsh" FLOAT DOUBLE
"rsbdn_rsh" FLOAT DOUBLE
"rsbdn_dw" FLOAT DOUBLE
"rsbdp_rsh" FLOAT DOUBLE
"rsbdp_dw" FLOAT DOUBLE
"rsbnp1_rsh" FLOAT DOUBLE
"rsbnp1_dw" FLOAT DOUBLE
"rsbpp1_rsh" FLOAT DOUBLE
"rsbpp1_dw" FLOAT DOUBLE
"rsbpp1k1_rsh" FLOAT DOUBLE
"rsbpp1k1_dw" FLOAT DOUBLE
"rsbdn5_rsh" FLOAT DOUBLE
"rsbdn5_dw" FLOAT DOUBLE
"rsbdp5_rsh" FLOAT DOUBLE
"rsbdp5_dw" FLOAT DOUBLE
"p_rvia1_rsh" FLOAT DOUBLE
"p_rvia2_rsh" FLOAT DOUBLE
"p_rvia3_rsh" FLOAT DOUBLE
"p_rvia4_rsh" FLOAT DOUBLE
"p_rviatp_rsh" FLOAT DOUBLE
"p_rviatpl_rsh" FLOAT DOUBLE
"rxw2ti_rsh" FLOAT DOUBLE
"rxw2ti_dw" FLOAT DOUBLE
"rxw2ti_ar" FLOAT DOUBLE
) PROP(
"key" "parameters"
)
VALUE
"top-level" "top-level" (
2.700000000000000e+01
2.700000000000000e+01
0.000000000000000e+00
1.200000000000000e+00
6.000000000000000e-01
7.000000000000000e-01
0.000000000000000e+00
1.000000000000000e+00
3.000000000000000e+00
3.000000000000000e+00
3.000000000000000e+00
3.000000000000000e+00
3.000000000000000e+00
3.000000000000000e+00
0.000000000000000e+00
1.000000000000000e+00
1.000000000000000e+00
1.000000000000000e+00
1.000000000000000e+00
1.000000000000000e+00
1.000000000000000e+00
1.000000000000000e+00
1.000000000000000e+00
1.000000000000000e+00
1.000000000000000e+00
1.000000000000000e+00
0.000000000000000e+00
0.000000000000000e+00
0.000000000000000e+00
0.000000000000000e+00
0.000000000000000e+00
1.000000000000000e+00
1.000000000000000e+00
1.000000000000000e+00
1.000000000000000e+00
1.000000000000000e+00
1.000000000000000e+00
1.000000000000000e+00
1.000000000000000e+00
1.000000000000000e+00
1.000000000000000e+00
1.000000000000000e+00
0.000000000000000e+00
0.000000000000000e+00
0.000000000000000e+00
0.000000000000000e+00
0.000000000000000e+00
1.000000000000000e+00
1.000000000000000e+00
1.000000000000000e+00
1.000000000000000e+00
1.000000000000000e+00
1.000000000000000e+00
1.000000000000000e+00
1.000000000000000e+00
1.000000000000000e+00
1.000000000000000e+00
1.000000000000000e+00
0.000000000000000e+00
0.000000000000000e+00
0.000000000000000e+00