HEADER
"PSFversion" "1.00"
"design" "(\"final_project\" \"zz_comp\" \"schematic\" \"\")"
"simulator" "spectre"
"temperature" "27"
"host" ""
"date" "Nov 25 09:30:47 2019"
"title" ""
"analysisList" "()"
END
