HEADER
"PSFversion" "1.00"
"design" "(\"final_project\" \"zz_comp\" \"schematic\" \"\")"
"simulator" "spectre"
"temperature" "27"
"host" ""
"date" "Nov 26 15:34:59 2019"
"title" ""
"analysisList" "()"
END
