HEADER
"PSFversion" "1.00"
"Time Stamp" "Nov 25 09:30:47 2019"
TYPE
"variable" STRUCT(
"value" FLOAT DOUBLE
) PROP( "key" "element" )
VALUE
"Vplus" "variable" ( 900e-3 ) PROP( )
"Vneg" "variable" ( 925e-3 ) PROP( )
"supply" "variable" ( 1.2 ) PROP( )
"temp" "variable" ( 27 ) PROP( )
END
