HEADER
"PSFversion" "1.00"
"Time Stamp" "Nov 25 17:31:28 2019"
TYPE
"variable" STRUCT(
"value" FLOAT DOUBLE
) PROP( "key" "element" )
VALUE
"Vplus" "variable" ( 700e-3 ) PROP( )
"Vneg" "variable" ( 600e-3 ) PROP( )
"supply" "variable" ( 1.2 ) PROP( )
"temp" "variable" ( 27 ) PROP( )
END
