HEADER
"PSFversion" "1.00"
"Time Stamp" "Nov 24 23:56:46 2019"
TYPE
"variable" STRUCT(
"value" FLOAT DOUBLE
) PROP( "key" "element" )
VALUE
"Vplus" "variable" ( 400e-3 ) PROP( )
"Vneg" "variable" ( 800e-3 ) PROP( )
"supply" "variable" ( 1.2 ) PROP( )
"temp" "variable" ( 27 ) PROP( )
END
