HEADER
"PSFversion" "1.00"
"Time Stamp" "Nov 26 15:34:59 2019"
TYPE
"variable" STRUCT(
"value" FLOAT DOUBLE
) PROP( "key" "element" )
VALUE
"Vplus" "variable" ( 700e-3 ) PROP( )
"Vneg" "variable" ( 1.1 ) PROP( )
"supply" "variable" ( 1.2 ) PROP( )
"temp" "variable" ( 27 ) PROP( )
END
