HEADER
"PSFversion" "1.00"
"design" "(\"final_project\" \"zz_PGA_tester\" \"schematic\" \"\")"
"simulator" "spectre"
"temperature" "27"
"host" ""
"date" "Nov 29 13:26:24 2019"
"title" ""
"analysisList" "()"
END
