HEADER
"PSFversion" "1.00"
"design" "(\"ee140_gsi\" \"zz_EE140_Fa19_digital\" \"schematic\" \"\")"
"simulator" "spectre"
"temperature" "27.0"
"host" ""
"date" "Nov 25 09:06:04 2019"
"title" ""
"analysisList" "()"
END
