HEADER
"PSFversion" "1.00"
"__artInstanceTerminalDelimiter__" "."
"__artHierarchyDelimiter__" "."
"__netlister__" "AMS-UNL"
"__lib__" "final_project"
"__cell__" "zz_system"
"__view__" "config"
"__topcell__" "zz_system"
"__outputformat__" "sst2"
