HEADER
"PSFversion" "1.00"
"vin_pv" ".vin_pv"
"vin_nv" ".vin_nv"
"voutv" ".voutv"
"vspply_pv" ".vspply_pv"
"vrefv" ".vrefv"
"vspply_nv" ".vspply_nv"
