HEADER
"PSFversion" "1.00"
"I0n I1n I2n I3n I4n I5n I6n I7n" "final_project_mux2_schematic"
