HEADER
"PSFversion" "1.00"
"B<0>v" "B[0]v"
"B<1>v" "B[1]v"
"B<2>v" "B[2]v"
"B<3>v" "B[3]v"
"B<4>v" "B[4]v"
"B<5>v" "B[5]v"
"B<6>v" "B[6]v"
"B<7>v" "B[7]v"
"D<0>v" "D[0]v"
"D<1>v" "D[1]v"
"D<2>v" "D[2]v"
"D<3>v" "D[3]v"
"D<4>v" "D[4]v"
"D<5>v" "D[5]v"
"D<6>v" "D[6]v"
"D<7>v" "D[7]v"
"gnd!v" "cds_globals.\\gnd! v"
