HEADER
"PSFversion" "1.00"
"B<0>v" "B[0]v"
"B<1>v" "B[1]v"
"B<2>v" "B[2]v"
"B<3>v" "B[3]v"
"B<4>v" "B[4]v"
"B<5>v" "B[5]v"
"B<6>v" "B[6]v"
"B<7>v" "B[7]v"
"S<0>v" "S[0]v"
"S<1>v" "S[1]v"
"S<2>v" "S[2]v"
"S<3>v" "S[3]v"
"S<4>v" "S[4]v"
"S<5>v" "S[5]v"
"S<6>v" "S[6]v"
"S<7>v" "S[7]v"
"gnd!v" "cds_globals.\\gnd! v"
