HEADER
"PSFversion" "1.00"
"VDDAv" "(FUNCTION or(mappedRoot(\".1@index\") mappedRoot(\".VDDA\")))v"
"VDDAv" ".VDDAv"
"VDDAv" ".\\1 v"
"VBATv" "(FUNCTION or(mappedRoot(\".2@index\") mappedRoot(\".VBAT\")))v"
"VBATv" ".VBATv"
"VBATv" ".\\2 v"
"VSSv" "(FUNCTION or(mappedRoot(\".3@index\") mappedRoot(\".VSS\")))v"
"VSSv" ".VSSv"
"VSSv" ".\\3 v"
"VREFv" "(FUNCTION or(mappedRoot(\".4@index\") mappedRoot(\".VREF\")))v"
"VREFv" ".VREFv"
"VREFv" ".\\4 v"
