HEADER
"PSFversion" "1.00"
"S<0>v" "S[0]v"
"gnd!v" "cds_globals.\\gnd! v"
