HEADER
"PSFversion" "1.00"
"C0n" "analogLib_cap_spectre"
"E0n E1n E2n E3n E4n" "analogLib_vcvs_spectre"
"I22n" "analogLib_ipulse_spectre"
"R0n" "analogLib_res_spectre"
"V0n V2n" "analogLib_vsource_spectre"
"V1n V3n V8n V9n" "analogLib_vpulse_spectre"
"I27n" "final_project_system_schematic"
"I30n" "final_project_EE140_Fa19_digital_schematic"
