HEADER
"PSFversion" "1.00"
"I0n" "final_project_inverter_schematic"
"I1n I2n" "final_project_sw_cmos_schematic"
