HEADER
"PSFversion" "1.00"
"VDDv" "(FUNCTION or(mappedRoot(\".2@index\") mappedRoot(\".VDD\")))v"
"VDDv" ".VDDv"
"VDDv" ".\\2 v"
"VSSv" "(FUNCTION or(mappedRoot(\".3@index\") mappedRoot(\".VSS\")))v"
"VSSv" ".VSSv"
"VSSv" ".\\3 v"
"OUTv" "(FUNCTION or(mappedRoot(\".1@index\") mappedRoot(\".OUT\")))v"
"OUTv" ".OUTv"
"OUTv" ".\\1 v"
"INv" "(FUNCTION or(mappedRoot(\".4@index\") mappedRoot(\".IN\")))v"
"INv" ".INv"
"INv" ".\\4 v"
"M0n" "PRIMLIB_ne_spectre"
"M1n" "PRIMLIB_pe_spectre"
