HEADER
"PSFversion" "1.00"
"I0n" "final_project_inverter_schematic"
"M0n" "PRIMLIB_pe_spectre"
