HEADER
"PSFversion" "1.00"
"D<0>v" "D[0]v"
"D<1>v" "D[1]v"
"D<2>v" "D[2]v"
"D<3>v" "D[3]v"
"D<4>v" "D[4]v"
"D<5>v" "D[5]v"
"D<6>v" "D[6]v"
"D<7>v" "D[7]v"
"EXT_IN<0>v" "EXT_IN[0]v"
"EXT_IN<1>v" "EXT_IN[1]v"
"G<0>v" "G[0]v"
"G<1>v" "G[1]v"
"G<2>v" "G[2]v"
"S<0>v" "S[0]v"
"S<1>v" "S[1]v"
"gnd!v" "cds_globals.\\gnd! v"
