HEADER
"PSFversion" "1.00"
"G<0>v" "G[0]v"
"G<1>v" "G[1]v"
"G<2>v" "G[2]v"
"gnd!v" "cds_globals.\\gnd! v"
