HEADER
"PSFversion" "1.00"
"__NEXT_FILE__" "final_project_zz_system_schematic"
