HEADER
"PSFversion" "1.00"
"voutv" "\:voutv"
"vrefv" "\:vrefv"
"vin_pv" "\:vin_pv"
"vin_nv" "\:vin_nv"
"vspply_pv" "\:vspply_pv"
"vspply_nv" "\:vspply_nv"
