HEADER
"PSFversion" "1.00"
"inpv" "\:inpv"
"innv" "\:innv"
"outv" "\:outv"
