HEADER
"PSFversion" "1.00"
"C2n C7n C1n C4n C0n" "analogLib_cap_spectre"
"I1n I2n I0n" "mux2"
"W9n W8n W22n W3n W2n W23n W1n W21n W0n" "analogLib_switch_spectre"
"E1n" "analogLib_vcvs_spectre"
"CLK_PGA_1v" ":1v"
"CLK_PGA_2v" ":2v"
"G<2>v" ":3v"
"G<1>v" ":4v"
"G<0>v" ":5v"
"VDDv" ":6v"
"VINv" ":7v"
"VOUTv" ":8v"
"VSSv" ":9v"
