HEADER
"PSFversion" "1.00"
"R1n R3n R0n" "analogLib_res_spectre"
"C4n C0n" "analogLib_cap_spectre"
"I4n" "pmos_cascode_wrap"
"W1n W21n W0n" "analogLib_switch_spectre"
"I5n I3n" "inverter"
"CLKv" ":1v"
"VDDv" ":2v"
"VINv" ":3v"
"VOUTv" ":4v"
"VSSv" ":5v"
"G<2>v" ":6v"
"G<1>v" ":7v"
"G<0>v" ":8v"
