HEADER
"PSFversion" "1.00"
"I0n" "PGA"
"V3n V0n" "analogLib_vdc_spectre"
"V1n" "analogLib_vpulse_spectre"
"R0n" "analogLib_res_spectre"
