HEADER
"PSFversion" "1.00"
"I2n" "PGA"
"V6n V5n V4n V3n V0n" "analogLib_vdc_spectre"
"V2n V1n" "analogLib_vpulse_spectre"
"R0n" "analogLib_res_spectre"
