HEADER
"PSFversion" "1.00"
"design" "(\"final_project\" \"PGA\" \"schematic\" \"\")"
"simulator" "spectre"
"temperature" "27"
"host" ""
"date" "Nov 29 00:07:16 2019"
"title" ""
"analysisList" "()"
END
