HEADER
"PSFversion" "1.00"
"design" "(\"final_project\" \"zz_system\" \"config\" \"\")"
"simulator" "ams"
"temperature" "27"
"host" ""
"date" "Nov 27 20:14:47 2019"
"title" ""
"analysisList" "()"
END
