HEADER
"PSFversion" "1.00"
"design" "(\"ee140_gsi\" \"zz_EE140_Fa19_digital\" \"config\" \"\")"
"simulator" "ams"
"temperature" "27.0"
"host" ""
"date" "Nov 27 20:11:52 2019"
"title" ""
"analysisList" "()"
END
