HEADER
"PSFversion" "1.00"
"design" "(\"final_project\" \"zz_EE140_Fa19_digital\" \"config\" \"\")"
"simulator" "ams"
"temperature" "27.0"
"host" ""
"date" "Nov 29 01:12:41 2019"
"title" ""
"analysisList" "()"
END
