HEADER
"PSFversion" "1.00"
"Time Stamp" "Nov 29 01:12:41 2019"
TYPE
"variable" STRUCT(
"value" FLOAT DOUBLE
) PROP( "key" "element" )
VALUE
"TSTART" "variable" ( 1e-6 ) PROP( )
"VCLK" "variable" ( 1.2 ) PROP( )
"VCOMP" "variable" ( 1.2 ) PROP( )
"FCLK" "variable" ( 1e6 ) PROP( )
"TFALL" "variable" ( 10e-9 ) PROP( )
"TRISE" "variable" ( 10e-9 ) PROP( )
"VDD" "variable" ( 1.2 ) PROP( )
"_EXPR_1" "variable" ( 15e-6 ) PROP( )
"temp" "variable" ( 27.0 ) PROP( )
END
