HEADER
"PSFversion" "1.00"
"W21n W20n W19n W18n W17n W16n W15n W14n W13n W12n W9n W8n W22n W11n W10n W3n W2n W23n W0n" "analogLib_switch_spectre"
"C0n C8n C7n C4n C6n C5n C1n C3n C2n" "analogLib_cap_spectre"
"I1n" "COMP"
"I7n" "ADC_ctrl"
"I8n" "inverter"
"CLKv" ":1v"
"COMP_OUTv" ":2v"
"D<7>v" ":3v"
"D<6>v" ":4v"
"D<5>v" ":5v"
"D<4>v" ":6v"
"D<3>v" ":7v"
"D<2>v" ":8v"
"D<1>v" ":9v"
"D<0>v" ":10v"
"VDDv" ":11v"
"VINv" ":12v"
"VREFv" ":13v"
"VSSv" ":14v"
"CMPv" ":15v"
"LDv" ":16v"
