HEADER
"PSFversion" "1.00"
"I29n" "sw_pmos"
"C0n C8n C7n C4n C6n C5n C1n C3n C2n" "analogLib_cap_spectre"
"I1n" "COMP"
"I7n" "ADC_ctrl"
"I8n" "inverter"
"I24n I23n I25n I26n I20n I19n I21n I22n I18n I17n I14n I13n I15n I16n I12n I11n I10n I27n" "sw_cmos"
"CLKv" ":1v"
"COMP_OUTv" ":2v"
"D<7>v" ":3v"
"D<6>v" ":4v"
"D<5>v" ":5v"
"D<4>v" ":6v"
"D<3>v" ":7v"
"D<2>v" ":8v"
"D<1>v" ":9v"
"D<0>v" ":10v"
"VDDv" ":11v"
"VINv" ":12v"
"VREFv" ":13v"
"VSSv" ":14v"
"CMPv" ":15v"
"LDv" ":16v"
