HEADER
"PSFversion" "1.00"
"I17n I15n I18n I21n I19n I16n I20n I22n" "mux2_ideal"
"B<7>v" ":1v"
"B<6>v" ":2v"
"B<5>v" ":3v"
"B<4>v" ":4v"
"B<3>v" ":5v"
"B<2>v" ":6v"
"B<1>v" ":7v"
"B<0>v" ":8v"
"S<7>v" ":9v"
"S<6>v" ":10v"
"S<5>v" ":11v"
"S<4>v" ":12v"
"S<3>v" ":13v"
"S<2>v" ":14v"
"S<1>v" ":15v"
"S<0>v" ":16v"
"VDDv" ":17v"
"VREFv" ":18v"
"VSSv" ":19v"
