HEADER
"PSFversion" "1.00"
"nen" "PRIMLIB_ne_spectre"
"pen" "PRIMLIB_pe_spectre"
"inv" ":1v"
"outv" ":2v"
"VDDv" ":3v"
"VSSv" ":4v"
