HEADER
"PSFversion" "1.00"
"I0n" "inverter"
"I2n I1n" "sw_cmos"
"S<0>v" ":1v"
"VDDv" ":2v"
"VSSv" ":3v"
"in0v" ":4v"
"in1v" ":5v"
"outv" ":6v"
