HEADER
"PSFversion" "1.00"
"I18n I17n I16n I15n I14n I13n I12n I11n I10n I8n I7n I6n I5n I4n I3n I2n I1n I0n" "DFRRSHDX0_dupe"
"CLKv" ":1v"
"COMPv" ":2v"
"D<7>v" ":3v"
"D<6>v" ":4v"
"D<5>v" ":5v"
"D<4>v" ":6v"
"D<3>v" ":7v"
"D<2>v" ":8v"
"D<1>v" ":9v"
"D<0>v" ":10v"
"RESETBv" ":11v"
"DONEv" ":12v"
"VDDv" ":13v"
"VSSv" ":14v"
