HEADER
"PSFversion" "1.00"
"M0n" "PRIMLIB_ne_spectre"
"M1n" "PRIMLIB_pe_spectre"
"I0n" "inverter"
"VDDv" ":1v"
"VSSv" ":2v"
"io0v" ":3v"
"io1v" ":4v"
"sw_ctrlv" ":5v"
