HEADER
"PSFversion" "1.00"
"I0n" "ADC_ideal"
"V3n V2n V1n V0n" "analogLib_vdc_spectre"
"V12n V11n V10n V9n V8n V7n V14n V13n V6n V5n V4n" "analogLib_vpulse_spectre"
"I2n" "SAR_DFF"
