HEADER
"PSFversion" "1.00"
"I0n" "ADC"
"V3n V2n V1n V0n" "analogLib_vdc_spectre"
"V6n V5n V4n" "analogLib_vpulse_spectre"
"I2n" "SAR_DFF"
