HEADER
"PSFversion" "1.00"
"state<0>v" "state[0]v"
"state<1>v" "state[1]v"
