HEADER
"PSFversion" "1.00"
"D<0>v" "D[0]v"
"D<1>v" "D[1]v"
"D<2>v" "D[2]v"
"D<3>v" "D[3]v"
"D<4>v" "D[4]v"
"D<5>v" "D[5]v"
"D<6>v" "D[6]v"
"D<7>v" "D[7]v"
"X<0>v" "X[0]v"
"X<1>v" "X[1]v"
"X<2>v" "X[2]v"
"X<3>v" "X[3]v"
"X<4>v" "X[4]v"
"X<5>v" "X[5]v"
"X<6>v" "X[6]v"
"X<7>v" "X[7]v"
"gnd!v" "cds_globals.\\gnd! v"
