HEADER
"PSFversion" "1.00"
"V0n V1n V2n" "analogLib_vpulse_spectre"
"V4n" "analogLib_vdc_spectre"
"I33n" "final_project_EE140_Fa19_digital_schematic"
