HEADER
"PSFversion" "1.00"
"__NEXT_FILE__" "final_project_zz_EE140_Fa19_digital_schematic"
