HEADER
"PSFversion" "1.00"
"__artInstanceTerminalDelimiter__" "."
"__artHierarchyDelimiter__" "."
"__netlister__" "AMS-UNL"
"__lib__" "ee140_gsi"
"__cell__" "zz_EE140_Fa19_digital"
"__view__" "config"
"__topcell__" "zz_EE140_Fa19_digital"
"__outputformat__" "sst2"
