HEADER
"PSFversion" "1.00"
"design" "(\"final_project\" \"zz_mux2\" \"schematic\" \"\")"
"simulator" "spectre"
"temperature" "27"
"host" ""
"date" "Nov 25 10:04:34 2019"
"title" ""
"analysisList" "()"
END
