HEADER
"PSFversion" "1.00"
"design" "(\"final_project\" \"zz_switchtest\" \"schematic\" \"\")"
"simulator" "spectre"
"temperature" "27"
"host" ""
"date" "Nov 28 14:29:48 2019"
"title" ""
"analysisList" "()"
END
