HEADER
"PSFversion" "1.00"
"design" "(\"final_project\" \"zz_switchtest\" \"schematic\" \"\")"
"simulator" "spectre"
"temperature" "27"
"host" ""
"date" "Nov 24 19:41:00 2019"
"title" ""
"analysisList" "()"
END
