HEADER
"PSFversion" "1.00"
"Time Stamp" "Nov 24 19:41:00 2019"
TYPE
"variable" STRUCT(
"value" FLOAT DOUBLE
) PROP( "key" "element" )
VALUE
"control" "variable" ( 1 ) PROP( )
"temp" "variable" ( 27 ) PROP( )
END
