HEADER
"PSFversion" "1.00"
"Time Stamp" "Nov 28 14:29:48 2019"
TYPE
"variable" STRUCT(
"value" FLOAT DOUBLE
) PROP( "key" "element" )
VALUE
"test" "variable" ( 1 ) PROP( )
"supply" "variable" ( 1.2 ) PROP( )
"ctrl_p" "variable" ( 1.2 ) PROP( )
"ctrl_n" "variable" ( 0 ) PROP( )
"ctrl_c" "variable" ( 0 ) PROP( )
"temp" "variable" ( 27 ) PROP( )
END
