HEADER
"PSFversion" "1.00"
"VBATv" "(FUNCTION or(mappedRoot(\".2@index\") mappedRoot(\".VBAT\")))v"
"VBATv" ".VBATv"
"VBATv" ".\\2 v"
"VSSv" "(FUNCTION or(mappedRoot(\".3@index\") mappedRoot(\".VSS\")))v"
"VSSv" ".VSSv"
"VSSv" ".\\3 v"
"VBATDIV4v" "(FUNCTION or(mappedRoot(\".1@index\") mappedRoot(\".VBATDIV4\")))v"
"VBATDIV4v" ".VBATDIV4v"
"VBATDIV4v" ".\\1 v"
