HEADER
"PSFversion" "1.00"
"design" "(\"final_project\" \"zz_ADC\" \"schematic\" \"\")"
"simulator" "spectre"
"temperature" "27"
"host" ""
"date" "Nov 25 17:36:29 2019"
"title" ""
"analysisList" "()"
END
