HEADER
"PSFversion" "1.00"
"design" "(\"final_project\" \"zz_ADC\" \"schematic\" \"\")"
"simulator" "spectre"
"temperature" "27"
"host" ""
"date" "Nov 29 00:32:03 2019"
"title" ""
"analysisList" "()"
END
