HEADER
"PSFversion" "1.00"
"I0n" "COMP"
"V3n V2n V1n V0n" "analogLib_vdc_spectre"
"V4n" "analogLib_vpulse_spectre"
