HEADER
"PSFversion" "1.00"
"I0n" "mux2"
"V4n V3n V2n V1n V0n" "analogLib_vdc_spectre"
"R0n" "analogLib_res_spectre"
