HEADER
"PSFversion" "1.00"
"PLUSv" ":1v"
"MINUSv" ":2v"
"(op ?)p" "v i res pwr"
"(op v)p" "OP( mappedRoot(\".r1\") \"v\")"
"(op i)p" "OP( mappedRoot(\".r1\") \"i\")"
"(op res)p" "OP( mappedRoot(\".r1\") \"res\")"
"(op pwr)p" "OP( mappedRoot(\".r1\") \"pwr\")"
"(mp ?)p" "rsh dw etch"
"(mp rsh)p" "MP( mappedRoot(\".r1\") \"rsh\")"
"(mp dw)p" "MP( mappedRoot(\".r1\") \"dw\")"
"(mp etch)p" "MP( mappedRoot(\".r1\") \"etch\")"
"(opt ?)p" "v i res pwr"
"(opt v)p" "OPT( mappedRoot(\".r1\") \"v\")"
"(opt i)p" "OPT( mappedRoot(\".r1\") \"i\")"
"(opt res)p" "OPT( mappedRoot(\".r1\") \"res\")"
"(opt pwr)p" "OPT( mappedRoot(\".r1\") \"pwr\")"
