HEADER
"PSFversion" "1.00"
"__NEXT_FILE__" "DREG_test1130"
