HEADER
"PSFversion" "1.00"
"design" "(\"final_project\" \"DREG_test1130\" \"schematic\" \"\")"
"simulator" "spectre"
"temperature" "27.0"
"host" ""
"date" "Dec  3 15:33:13 2019"
"title" ""
"analysisList" "()"
END
