HEADER
"PSFversion" "1.00"
"Time Stamp" "Dec  3 15:33:13 2019"
TYPE
"variable" STRUCT(
"value" FLOAT DOUBLE
) PROP( "key" "element" )
VALUE
"VBAT" "variable" ( 1 ) PROP( )
"temp" "variable" ( 27.0 ) PROP( )
END
