HEADER
"PSFversion" "1.00"
"M0n" "PRIMLIB_ne_spectre"
"VSSv" ":1v"
"io0v" ":2v"
"io1v" ":3v"
"sw_ctrlv" ":4v"
