HEADER
"PSFversion" "1.00"
"W0n" "analogLib_switch_spectre"
"V1n V0n" "analogLib_vdc_spectre"
"R0n" "analogLib_res_spectre"
