HEADER
"PSFversion" "1.00"
"M0n" "PRIMLIB_ne_spectre"
"M1n" "PRIMLIB_pe_spectre"
"INv" ":1v"
"OUTv" ":2v"
"VDDv" ":3v"
"VSSv" ":4v"
