HEADER
"PSFversion" "1.00"
"R3n R1n R0n" "analogLib_res_spectre"
"C4n C0n" "analogLib_cap_spectre"
"I4n" "pmos_cascode_wrap"
"W1n W0n W21n" "analogLib_switch_spectre"
"I3n" "inverter"
