HEADER
"PSFversion" "1.00"
"M23n M22n M27n M12n M11n M7n M6n M4n M3n M2n M1n M5n" "PRIMLIB_pel_spectre"
"M24n M26n M25n M14n M13n M10n M9n M8n M0n" "PRIMLIB_nel_spectre"
"R0n" "analogLib_res_spectre"
"INNv" ":1v"
"INPv" ":2v"
"OUTv" ":3v"
"VDDv" ":4v"
"VSSv" ":5v"
