HEADER
"PSFversion" "1.00"
"W1n W0n" "analogLib_switch_spectre"
"I0n" "inverter"
"S<0>v" ":1v"
"VDDv" ":2v"
"VSSv" ":3v"
"in0v" ":4v"
"in1v" ":5v"
"outv" ":6v"
