HEADER
"PSFversion" "1.00"
"__NEXT_FILE__" "zz_ADC_ctrl"
