HEADER
"PSFversion" "1.00"
"I0n" "ADC_ctrl"
"V10n V9n V8n V7n V6n V5n V4n V3n V2n V1n V0n" "analogLib_vdc_spectre"
