HEADER
"PSFversion" "1.00"
"design" "(\"final_project\" \"zz_ADC_ctrl\" \"schematic\" \"\")"
"simulator" "spectre"
"temperature" "27"
"host" ""
"date" "Nov 25 16:12:46 2019"
"title" ""
"analysisList" "()"
END
